Program Version,EnergyPlus, Version 24.1.0-9d7789a3ac, YMD=2024.08.19 08:15
1,5,Environment Title[],Latitude[deg],Longitude[deg],Time Zone[],Elevation[m]
2,8,Day of Simulation[],Month[],Day of Month[],DST Indicator[1=yes 0=no],Hour[],StartMinute[],EndMinute[],DayType
3,5,Cumulative Day of Simulation[],Month[],Day of Month[],DST Indicator[1=yes 0=no],DayType  ! When Daily Report Variables Requested
4,2,Cumulative Days of Simulation[],Month[]  ! When Monthly Report Variables Requested
5,1,Cumulative Days of Simulation[] ! When Run Period Report Variables Requested
6,1,Calendar Year of Simulation[] ! When Annual Report Variables Requested
7,1,Environment,Site Outdoor Air Drybulb Temperature [C] !Hourly
8,1,THERMAL ZONE: ALPHA_MEETING_ROOM PEOPLE 2,People Occupant Count [] !Hourly
9,1,THERMAL ZONE: BETA_MEETING_ROOM PEOPLE 2,People Occupant Count [] !Hourly
10,1,THERMAL ZONE: CLEANING_ROOM PEOPLE 2,People Occupant Count [] !Hourly
11,1,THERMAL ZONE: CORRIDOR_TOILET PEOPLE 2,People Occupant Count [] !Hourly
12,1,THERMAL ZONE: ENTREANCE_SHOW_ROOM PEOPLE 2,People Occupant Count [] !Hourly
13,1,THERMAL ZONE: ENTREANCE_TOILET PEOPLE 2,People Occupant Count [] !Hourly
14,1,THERMAL ZONE: EXTRA_CLEANING_ROOM PEOPLE 2,People Occupant Count [] !Hourly
15,1,THERMAL ZONE: EXTRA_OFFICE_1 PEOPLE 2,People Occupant Count [] !Hourly
16,1,THERMAL ZONE: EXTRA_OFFICE_2 PEOPLE 2,People Occupant Count [] !Hourly
17,1,THERMAL ZONE: EXTRA_STORAGE PEOPLE 2,People Occupant Count [] !Hourly
18,1,THERMAL ZONE: FINANCE_CORRIDOR PEOPLE 2,People Occupant Count [] !Hourly
19,1,THERMAL ZONE: FINANCE_MEETING_ROOM_1 PEOPLE 2,People Occupant Count [] !Hourly
20,1,THERMAL ZONE: FINANCE_MEETING_ROOM_2 PEOPLE 2,People Occupant Count [] !Hourly
21,1,THERMAL ZONE: FINANCE_MEETING_ROOM_3 PEOPLE 2,People Occupant Count [] !Hourly
22,1,THERMAL ZONE: FINANCE_OFFICE_2 PEOPLE 2,People Occupant Count [] !Hourly
23,1,THERMAL ZONE: FINANCE_OFFICE_3 PEOPLE 2,People Occupant Count [] !Hourly
24,1,THERMAL ZONE: FINANCE_OFFICE_4 PEOPLE 2,People Occupant Count [] !Hourly
25,1,THERMAL ZONE: FINANCE_TOILET_1 PEOPLE 2,People Occupant Count [] !Hourly
26,1,THERMAL ZONE: FINANCE_TOILET_2 PEOPLE 2,People Occupant Count [] !Hourly
27,1,THERMAL ZONE: GAMMA_MEETING_ROOM PEOPLE 2,People Occupant Count [] !Hourly
28,1,THERMAL ZONE: HARDWARE_CORRIDOR PEOPLE 2,People Occupant Count [] !Hourly
29,1,THERMAL ZONE: HARDWARE_MEETING_ROOM PEOPLE 2,People Occupant Count [] !Hourly
30,1,THERMAL ZONE: HARDWARE_OFFICE_2 PEOPLE 2,People Occupant Count [] !Hourly
31,1,THERMAL ZONE: HARDWARE_OFFICE_3 PEOPLE 2,People Occupant Count [] !Hourly
32,1,THERMAL ZONE: HARDWARE_TOILET_1 PEOPLE 2,People Occupant Count [] !Hourly
33,1,THERMAL ZONE: HARDWARE_TOILET_2 PEOPLE 2,People Occupant Count [] !Hourly
34,1,THERMAL ZONE: LARGE_STORAGE_ROOM PEOPLE 2,People Occupant Count [] !Hourly
35,1,THERMAL ZONE: SOFTWARE_OFFICE_2 PEOPLE 2,People Occupant Count [] !Hourly
36,1,THERMAL ZONE: FINANCE_OFFICE_1 PEOPLE 1,People Occupant Count [] !Hourly
37,1,THERMAL ZONE: HARDWARE_OFFICE_1 PEOPLE 1,People Occupant Count [] !Hourly
38,1,THERMAL ZONE: SOFTWARE_OFFICE_1 PEOPLE 1,People Occupant Count [] !Hourly
2093,1,THERMAL ZONE: ALPHA_MEETING_ROOM,Zone Air Temperature [C] !Hourly
2228,1,THERMAL ZONE: BETA_MEETING_ROOM,Zone Air Temperature [C] !Hourly
2291,1,THERMAL ZONE: CLEANING_ROOM,Zone Air Temperature [C] !Hourly
2354,1,THERMAL ZONE: CORRIDOR_TOILET,Zone Air Temperature [C] !Hourly
2417,1,THERMAL ZONE: ENTREANCE_SHOW_ROOM,Zone Air Temperature [C] !Hourly
2480,1,THERMAL ZONE: ENTREANCE_TOILET,Zone Air Temperature [C] !Hourly
2543,1,THERMAL ZONE: EXTRA_CLEANING_ROOM,Zone Air Temperature [C] !Hourly
2606,1,THERMAL ZONE: EXTRA_OFFICE_1,Zone Air Temperature [C] !Hourly
2669,1,THERMAL ZONE: EXTRA_OFFICE_2,Zone Air Temperature [C] !Hourly
2732,1,THERMAL ZONE: EXTRA_STORAGE,Zone Air Temperature [C] !Hourly
2795,1,THERMAL ZONE: FINANCE_CORRIDOR,Zone Air Temperature [C] !Hourly
2858,1,THERMAL ZONE: FINANCE_MEETING_ROOM_1,Zone Air Temperature [C] !Hourly
2921,1,THERMAL ZONE: FINANCE_MEETING_ROOM_2,Zone Air Temperature [C] !Hourly
2984,1,THERMAL ZONE: FINANCE_MEETING_ROOM_3,Zone Air Temperature [C] !Hourly
3047,1,THERMAL ZONE: FINANCE_OFFICE_1,Zone Air Temperature [C] !Hourly
3110,1,THERMAL ZONE: FINANCE_OFFICE_2,Zone Air Temperature [C] !Hourly
3173,1,THERMAL ZONE: FINANCE_OFFICE_3,Zone Air Temperature [C] !Hourly
3236,1,THERMAL ZONE: FINANCE_OFFICE_4,Zone Air Temperature [C] !Hourly
3299,1,THERMAL ZONE: FINANCE_TOILET_1,Zone Air Temperature [C] !Hourly
3362,1,THERMAL ZONE: FINANCE_TOILET_2,Zone Air Temperature [C] !Hourly
3425,1,THERMAL ZONE: GAMMA_MEETING_ROOM,Zone Air Temperature [C] !Hourly
3488,1,THERMAL ZONE: HARDWARE_CORRIDOR,Zone Air Temperature [C] !Hourly
3551,1,THERMAL ZONE: HARDWARE_MEETING_ROOM,Zone Air Temperature [C] !Hourly
3614,1,THERMAL ZONE: HARDWARE_OFFICE_1,Zone Air Temperature [C] !Hourly
3677,1,THERMAL ZONE: HARDWARE_OFFICE_2,Zone Air Temperature [C] !Hourly
3740,1,THERMAL ZONE: HARDWARE_OFFICE_3,Zone Air Temperature [C] !Hourly
3803,1,THERMAL ZONE: HARDWARE_TOILET_1,Zone Air Temperature [C] !Hourly
3866,1,THERMAL ZONE: HARDWARE_TOILET_2,Zone Air Temperature [C] !Hourly
3929,1,THERMAL ZONE: LARGE_STORAGE_ROOM,Zone Air Temperature [C] !Hourly
3992,1,THERMAL ZONE: ROOF_1,Zone Air Temperature [C] !Hourly
4055,1,THERMAL ZONE: ROOF_10,Zone Air Temperature [C] !Hourly
4118,1,THERMAL ZONE: ROOF_11,Zone Air Temperature [C] !Hourly
4181,1,THERMAL ZONE: ROOF_12,Zone Air Temperature [C] !Hourly
4244,1,THERMAL ZONE: ROOF_2,Zone Air Temperature [C] !Hourly
4307,1,THERMAL ZONE: ROOF_3,Zone Air Temperature [C] !Hourly
4370,1,THERMAL ZONE: ROOF_4,Zone Air Temperature [C] !Hourly
4433,1,THERMAL ZONE: ROOF_5,Zone Air Temperature [C] !Hourly
4496,1,THERMAL ZONE: ROOF_6,Zone Air Temperature [C] !Hourly
4559,1,THERMAL ZONE: ROOF_7,Zone Air Temperature [C] !Hourly
4622,1,THERMAL ZONE: ROOF_8,Zone Air Temperature [C] !Hourly
4685,1,THERMAL ZONE: ROOF_9,Zone Air Temperature [C] !Hourly
4748,1,THERMAL ZONE: SOFTWARE_OFFICE_1,Zone Air Temperature [C] !Hourly
4811,1,THERMAL ZONE: SOFTWARE_OFFICE_2,Zone Air Temperature [C] !Hourly
4874,1,THERMAL ZONE: ALPHA_MEETING_ROOM,Zone Air CO2 Concentration [ppm] !Hourly
4875,1,THERMAL ZONE: BETA_MEETING_ROOM,Zone Air CO2 Concentration [ppm] !Hourly
4876,1,THERMAL ZONE: CLEANING_ROOM,Zone Air CO2 Concentration [ppm] !Hourly
4877,1,THERMAL ZONE: CORRIDOR_TOILET,Zone Air CO2 Concentration [ppm] !Hourly
4878,1,THERMAL ZONE: ENTREANCE_SHOW_ROOM,Zone Air CO2 Concentration [ppm] !Hourly
4879,1,THERMAL ZONE: ENTREANCE_TOILET,Zone Air CO2 Concentration [ppm] !Hourly
4880,1,THERMAL ZONE: EXTRA_CLEANING_ROOM,Zone Air CO2 Concentration [ppm] !Hourly
4881,1,THERMAL ZONE: EXTRA_OFFICE_1,Zone Air CO2 Concentration [ppm] !Hourly
4882,1,THERMAL ZONE: EXTRA_OFFICE_2,Zone Air CO2 Concentration [ppm] !Hourly
4883,1,THERMAL ZONE: EXTRA_STORAGE,Zone Air CO2 Concentration [ppm] !Hourly
4884,1,THERMAL ZONE: FINANCE_CORRIDOR,Zone Air CO2 Concentration [ppm] !Hourly
4885,1,THERMAL ZONE: FINANCE_MEETING_ROOM_1,Zone Air CO2 Concentration [ppm] !Hourly
4886,1,THERMAL ZONE: FINANCE_MEETING_ROOM_2,Zone Air CO2 Concentration [ppm] !Hourly
4887,1,THERMAL ZONE: FINANCE_MEETING_ROOM_3,Zone Air CO2 Concentration [ppm] !Hourly
4888,1,THERMAL ZONE: FINANCE_OFFICE_1,Zone Air CO2 Concentration [ppm] !Hourly
4889,1,THERMAL ZONE: FINANCE_OFFICE_2,Zone Air CO2 Concentration [ppm] !Hourly
4890,1,THERMAL ZONE: FINANCE_OFFICE_3,Zone Air CO2 Concentration [ppm] !Hourly
4891,1,THERMAL ZONE: FINANCE_OFFICE_4,Zone Air CO2 Concentration [ppm] !Hourly
4892,1,THERMAL ZONE: FINANCE_TOILET_1,Zone Air CO2 Concentration [ppm] !Hourly
4893,1,THERMAL ZONE: FINANCE_TOILET_2,Zone Air CO2 Concentration [ppm] !Hourly
4894,1,THERMAL ZONE: GAMMA_MEETING_ROOM,Zone Air CO2 Concentration [ppm] !Hourly
4895,1,THERMAL ZONE: HARDWARE_CORRIDOR,Zone Air CO2 Concentration [ppm] !Hourly
4896,1,THERMAL ZONE: HARDWARE_MEETING_ROOM,Zone Air CO2 Concentration [ppm] !Hourly
4897,1,THERMAL ZONE: HARDWARE_OFFICE_1,Zone Air CO2 Concentration [ppm] !Hourly
4898,1,THERMAL ZONE: HARDWARE_OFFICE_2,Zone Air CO2 Concentration [ppm] !Hourly
4899,1,THERMAL ZONE: HARDWARE_OFFICE_3,Zone Air CO2 Concentration [ppm] !Hourly
4900,1,THERMAL ZONE: HARDWARE_TOILET_1,Zone Air CO2 Concentration [ppm] !Hourly
4901,1,THERMAL ZONE: HARDWARE_TOILET_2,Zone Air CO2 Concentration [ppm] !Hourly
4902,1,THERMAL ZONE: LARGE_STORAGE_ROOM,Zone Air CO2 Concentration [ppm] !Hourly
4903,1,THERMAL ZONE: ROOF_1,Zone Air CO2 Concentration [ppm] !Hourly
4904,1,THERMAL ZONE: ROOF_10,Zone Air CO2 Concentration [ppm] !Hourly
4905,1,THERMAL ZONE: ROOF_11,Zone Air CO2 Concentration [ppm] !Hourly
4906,1,THERMAL ZONE: ROOF_12,Zone Air CO2 Concentration [ppm] !Hourly
4907,1,THERMAL ZONE: ROOF_2,Zone Air CO2 Concentration [ppm] !Hourly
4908,1,THERMAL ZONE: ROOF_3,Zone Air CO2 Concentration [ppm] !Hourly
4909,1,THERMAL ZONE: ROOF_4,Zone Air CO2 Concentration [ppm] !Hourly
4910,1,THERMAL ZONE: ROOF_5,Zone Air CO2 Concentration [ppm] !Hourly
4911,1,THERMAL ZONE: ROOF_6,Zone Air CO2 Concentration [ppm] !Hourly
4912,1,THERMAL ZONE: ROOF_7,Zone Air CO2 Concentration [ppm] !Hourly
4913,1,THERMAL ZONE: ROOF_8,Zone Air CO2 Concentration [ppm] !Hourly
4914,1,THERMAL ZONE: ROOF_9,Zone Air CO2 Concentration [ppm] !Hourly
4915,1,THERMAL ZONE: SOFTWARE_OFFICE_1,Zone Air CO2 Concentration [ppm] !Hourly
4916,1,THERMAL ZONE: SOFTWARE_OFFICE_2,Zone Air CO2 Concentration [ppm] !Hourly
5115,1,HEATING SETPOINT,Schedule Value [] !Hourly
5116,1,COOLING SETPOINT,Schedule Value [] !Hourly
5117,1,DECK TEMPERATURE,Schedule Value [] !Hourly
5118,1,DISTRICT HEATING INLET,Schedule Value [] !Hourly
5119,1,HOT WATER TEMPERATURE,Schedule Value [] !Hourly
5120,1,OFFICE ACTIVITY 1,Schedule Value [] !Hourly
5121,1,OFFICE EQUIP,Schedule Value [] !Hourly
5122,1,OFFICE INFIL,Schedule Value [] !Hourly
5123,1,OFFICE LIGHT,Schedule Value [] !Hourly
5124,1,OFFICE OCCUPANCY,Schedule Value [] !Hourly
5125,1,ONOFF_VENTILATION_FAN,Schedule Value [] !Hourly
5126,1,REMONI ROOF INFILL,Schedule Value [] !Hourly
5127,1,SCHEDULE CO2,Schedule Value [] !Hourly
5128,1,SCHEDULE RULESET 1,Schedule Value [] !Hourly
5129,1,VENTILATION SETPOINT,Schedule Value [] !Hourly
5130,1,THERMAL ZONE: ALPHA_MEETING_ROOM THERMOSTAT SCHEDULE,Schedule Value [] !Hourly
5131,1,THERMAL ZONE: BETA_MEETING_ROOM THERMOSTAT SCHEDULE,Schedule Value [] !Hourly
5132,1,THERMAL ZONE: CLEANING_ROOM THERMOSTAT SCHEDULE,Schedule Value [] !Hourly
5133,1,THERMAL ZONE: CORRIDOR_TOILET THERMOSTAT SCHEDULE,Schedule Value [] !Hourly
5134,1,THERMAL ZONE: ENTREANCE_SHOW_ROOM THERMOSTAT SCHEDULE,Schedule Value [] !Hourly
5135,1,THERMAL ZONE: ENTREANCE_TOILET THERMOSTAT SCHEDULE,Schedule Value [] !Hourly
5136,1,THERMAL ZONE: EXTRA_CLEANING_ROOM THERMOSTAT SCHEDULE,Schedule Value [] !Hourly
5137,1,THERMAL ZONE: EXTRA_OFFICE_1 THERMOSTAT SCHEDULE,Schedule Value [] !Hourly
5138,1,THERMAL ZONE: EXTRA_OFFICE_2 THERMOSTAT SCHEDULE,Schedule Value [] !Hourly
5139,1,THERMAL ZONE: EXTRA_STORAGE THERMOSTAT SCHEDULE,Schedule Value [] !Hourly
5140,1,THERMAL ZONE: FINANCE_CORRIDOR THERMOSTAT SCHEDULE,Schedule Value [] !Hourly
5141,1,THERMAL ZONE: FINANCE_MEETING_ROOM_1 THERMOSTAT SCHEDULE,Schedule Value [] !Hourly
5142,1,THERMAL ZONE: FINANCE_MEETING_ROOM_2 THERMOSTAT SCHEDULE,Schedule Value [] !Hourly
5143,1,THERMAL ZONE: FINANCE_MEETING_ROOM_3 THERMOSTAT SCHEDULE,Schedule Value [] !Hourly
5144,1,THERMAL ZONE: FINANCE_OFFICE_1 THERMOSTAT SCHEDULE,Schedule Value [] !Hourly
5145,1,THERMAL ZONE: FINANCE_OFFICE_2 THERMOSTAT SCHEDULE,Schedule Value [] !Hourly
5146,1,THERMAL ZONE: FINANCE_OFFICE_3 THERMOSTAT SCHEDULE,Schedule Value [] !Hourly
5147,1,THERMAL ZONE: FINANCE_OFFICE_4 THERMOSTAT SCHEDULE,Schedule Value [] !Hourly
5148,1,THERMAL ZONE: FINANCE_TOILET_1 THERMOSTAT SCHEDULE,Schedule Value [] !Hourly
5149,1,THERMAL ZONE: FINANCE_TOILET_2 THERMOSTAT SCHEDULE,Schedule Value [] !Hourly
5150,1,THERMAL ZONE: GAMMA_MEETING_ROOM THERMOSTAT SCHEDULE,Schedule Value [] !Hourly
5151,1,THERMAL ZONE: HARDWARE_CORRIDOR THERMOSTAT SCHEDULE,Schedule Value [] !Hourly
5152,1,THERMAL ZONE: HARDWARE_MEETING_ROOM THERMOSTAT SCHEDULE,Schedule Value [] !Hourly
5153,1,THERMAL ZONE: HARDWARE_OFFICE_1 THERMOSTAT SCHEDULE,Schedule Value [] !Hourly
5154,1,THERMAL ZONE: HARDWARE_OFFICE_2 THERMOSTAT SCHEDULE,Schedule Value [] !Hourly
5155,1,THERMAL ZONE: HARDWARE_OFFICE_3 THERMOSTAT SCHEDULE,Schedule Value [] !Hourly
5156,1,THERMAL ZONE: HARDWARE_TOILET_1 THERMOSTAT SCHEDULE,Schedule Value [] !Hourly
5157,1,THERMAL ZONE: HARDWARE_TOILET_2 THERMOSTAT SCHEDULE,Schedule Value [] !Hourly
5158,1,THERMAL ZONE: LARGE_STORAGE_ROOM THERMOSTAT SCHEDULE,Schedule Value [] !Hourly
5159,1,THERMAL ZONE: SOFTWARE_OFFICE_1 THERMOSTAT SCHEDULE,Schedule Value [] !Hourly
5160,1,THERMAL ZONE: SOFTWARE_OFFICE_2 THERMOSTAT SCHEDULE,Schedule Value [] !Hourly
5161,1,ALWAYS ON DISCRETE HVAC_LIBRARY,Schedule Value [] !Hourly
5162,1,ALWAYS ON DISCRETE,Schedule Value [] !Hourly
5163,1,ALWAYS OFF DISCRETE,Schedule Value [] !Hourly
5164,1,ALWAYS ON DISCRETE 2,Schedule Value [] !Hourly
5165,1,ALWAYS ON DISCRETE 3,Schedule Value [] !Hourly
5166,1,ALWAYS ON CONTINUOUS,Schedule Value [] !Hourly
5289,1,CONST SPD FAN,Fan Electricity Rate [W] !Hourly
5327,1,CONST SPD FAN,Fan Air Mass Flow Rate [kg/s] !Hourly
End of Data Dictionary
1,RUN PERIOD 1,  56.31,  10.63,   1.00,  25.00
2,1, 1, 1, 0, 1, 0.00,60.00,Sunday
7,7.3
8,0.05000000074505811
9,0.05000000074505811
10,0.05000000074505811
11,0.05000000074505811
12,0.05000000074505811
13,0.05000000074505811
14,0.05000000074505811
15,0.05000000074505811
16,0.05000000074505811
17,0.05000000074505811
18,0.05000000074505811
19,0.05000000074505811
20,0.05000000074505811
21,0.05000000074505811
22,0.05000000074505811
23,0.05000000074505811
24,0.05000000074505811
25,0.05000000074505811
26,0.05000000074505811
27,0.05000000074505811
28,0.05000000074505811
29,0.05000000074505811
30,0.05000000074505811
31,0.05000000074505811
32,0.05000000074505811
33,0.05000000074505811
34,0.05000000074505811
35,0.05000000074505811
36,0.500000007450581
37,0.500000007450581
38,0.500000007450581
2093,17.427051064341477
2228,18.00006693847766
2291,17.999847806983077
2354,17.420049007518724
2417,17.51025974392994
2480,18.000098029609976
2543,18.00028076185058
2606,17.474283773687983
2669,17.494318013923348
2732,17.999993491767306
2795,17.426860084188785
2858,17.45727853015552
2921,17.457533587138645
2984,17.460559971933638
3047,17.518560113879605
3110,17.44998673200335
3173,17.454503045188453
3236,17.4535181035799
3299,18.00019640766273
3362,17.999722076009203
3425,17.465069455790275
3488,17.454808560155495
3551,17.423368785451387
3614,17.426514846135138
3677,17.42069445125006
3740,17.457021355847683
3803,18.000544703796393
3866,18.00039417134735
3929,18.000155418294728
3992,8.814743738024083
4055,9.26373608619099
4118,8.978101894519293
4181,9.050139562494337
4244,7.984396714663151
4307,8.976279303114493
4370,9.18460137107891
4433,8.966076864250427
4496,8.799984496018089
4559,8.8032259102008
4622,8.378275219577397
4685,8.966348481581388
4748,17.64122663312915
4811,17.52057730547675
4874,409.1961366932716
4875,425.5982268293972
4876,435.6944779678776
4877,415.9542508277512
4878,407.46386605803394
4879,452.757461771229
4880,467.8742617464865
4881,409.6662359056839
4882,409.1760671599027
4883,424.8574157162177
4884,408.3836452758883
4885,411.07920781631697
4886,411.08137472141135
4887,411.09554306264005
4888,429.1781823168805
4889,411.1590761771397
4890,411.0646234170961
4891,411.0694298339235
4892,453.3800532886107
4893,454.5553068180208
4894,410.90695871343496
4895,407.9698135062185
4896,411.01110570543386
4897,432.2509718381105
4898,410.996174917312
4899,411.07410211387827
4900,466.78936286600333
4901,469.8437761097926
4902,410.3675667035831
4903,400.00000000000017
4904,400.0000000000003
4905,400.00000000000017
4906,400.0000000000004
4907,400.0000000000002
4908,399.99999999999983
4909,400.00000000000006
4910,400.00000000000017
4911,400.00000000000017
4912,400.0000000000003
4913,399.99999999999983
4914,400.00000000000006
4915,419.7711475521701
4916,408.71617507705486
5115,18.0
5116,27.0
5117,18.0
5118,60.0
5119,60.0
5120,100.0
5121,0.200000002980232
5122,0.600000023841858
5123,0.049999999999999996
5124,0.05000000074505811
5125,0.0
5126,0.699999988079071
5127,410.0
5128,410.0
5129,18.0
5130,4.0
5131,1.0
5132,1.0
5133,4.0
5134,4.0
5135,1.0
5136,1.0
5137,4.0
5138,4.0
5139,4.0
5140,4.0
5141,4.0
5142,4.0
5143,4.0
5144,4.0
5145,4.0
5146,4.0
5147,4.0
5148,1.0
5149,1.0
5150,4.0
5151,4.0
5152,4.0
5153,4.0
5154,4.0
5155,4.0
5156,1.0
5157,1.0
5158,1.0
5159,4.0
5160,4.0
5161,1.0
5162,1.0
5163,0.0
5164,400.0
5165,600.0
5166,400.0
5289,523.7400000000001
5327,1.3475943290263546
2,1, 1, 1, 0, 2, 0.00,60.00,Sunday
7,8.358333333333334
8,0.05000000074505811
9,0.05000000074505811
10,0.05000000074505811
11,0.05000000074505811
12,0.05000000074505811
13,0.05000000074505811
14,0.05000000074505811
15,0.05000000074505811
16,0.05000000074505811
17,0.05000000074505811
18,0.05000000074505811
19,0.05000000074505811
20,0.05000000074505811
21,0.05000000074505811
22,0.05000000074505811
23,0.05000000074505811
24,0.05000000074505811
25,0.05000000074505811
26,0.05000000074505811
27,0.05000000074505811
28,0.05000000074505811
29,0.05000000074505811
30,0.05000000074505811
31,0.05000000074505811
32,0.05000000074505811
33,0.05000000074505811
34,0.05000000074505811
35,0.05000000074505811
36,0.500000007450581
37,0.500000007450581
38,0.500000007450581
2093,17.485111748634427
2228,17.999510787486063
2291,17.999796754176145
2354,17.483870687475143
2417,17.562310648307577
2480,18.00054842792193
2543,18.00056538881459
2606,17.531384725018274
2669,17.54774255675226
2732,17.99970975936068
2795,17.49007137669368
2858,17.515653301299285
2921,17.51582283109136
2984,17.51886153418824
3047,17.570479467549106
3110,17.5089459378394
3173,17.513441243254054
3236,17.512919045439432
3299,17.999676490378445
3362,18.000054283943005
3425,17.522815703384797
3488,17.51546722714189
3551,17.484379600639386
3614,17.48741635803495
3677,17.48242785476322
3740,17.514397139918785
3803,18.00019607497349
3866,18.000619978467245
3929,17.999624267069958
3992,8.94525150016373
4055,9.381607509614714
4118,9.096735751700821
4181,9.171961769355045
4244,8.129603179782048
4307,9.094852323246885
4370,9.301843929528859
4433,9.083047511418227
4496,8.928463150108916
4559,8.932177724590233
4622,8.700099595887348
4685,9.083310022585044
4748,17.680072639156478
4811,17.57180419180114
4874,409.20904664193205
4875,425.73672033725785
4876,435.9055623704259
4877,415.95468469902517
4878,407.48159933083247
4879,453.08021782484997
4880,468.2949713013109
4881,409.6799569155144
4882,409.1908197020066
4883,424.9909898180222
4884,408.39907490450076
4885,411.0897527679621
4886,411.09193432752517
4887,411.10614974196005
4888,429.16150059895443
4889,411.1692412373199
4890,411.0750991104259
4891,411.079929707842
4892,453.7074914683646
4893,454.89008301037705
4894,410.9180575683801
4895,407.98646032589676
4896,411.0207082849802
4897,432.21585818719285
4898,411.0057192584272
4899,411.0846289804402
4900,467.2032958430041
4901,470.27676380402727
4902,410.41388899062025
4903,400.0000000000003
4904,400.00000000000017
4905,400.00000000000017
4906,400.0000000000002
4907,400.00000000000017
4908,399.99999999999994
4909,400.00000000000017
4910,400.00000000000006
4911,400.00000000000006
4912,400.00000000000045
4913,400.00000000000006
4914,400.0000000000002
4915,419.7796629890285
4916,408.7322033906401
5115,18.0
5116,27.0
5117,18.0
5118,60.0
5119,60.0
5120,100.0
5121,0.200000002980232
5122,0.600000023841858
5123,0.049999999999999996
5124,0.05000000074505811
5125,0.0
5126,0.699999988079071
5127,410.0
5128,410.0
5129,18.0
5130,4.0
5131,1.0
5132,1.0
5133,4.0
5134,4.0
5135,1.0
5136,1.0
5137,4.0
5138,4.0
5139,4.0
5140,4.0
5141,4.0
5142,4.0
5143,4.0
5144,4.0
5145,4.0
5146,4.0
5147,4.0
5148,1.0
5149,1.0
5150,4.0
5151,4.0
5152,4.0
5153,4.0
5154,4.0
5155,4.0
5156,1.0
5157,1.0
5158,1.0
5159,4.0
5160,4.0
5161,1.0
5162,1.0
5163,0.0
5164,400.0
5165,600.0
5166,400.0
5289,523.7400000000001
5327,1.3475943290263546
2,1, 1, 1, 0, 3, 0.00,60.00,Sunday
7,8.633333333333335
8,0.05000000074505811
9,0.05000000074505811
10,0.05000000074505811
11,0.05000000074505811
12,0.05000000074505811
13,0.05000000074505811
14,0.05000000074505811
15,0.05000000074505811
16,0.05000000074505811
17,0.05000000074505811
18,0.05000000074505811
19,0.05000000074505811
20,0.05000000074505811
21,0.05000000074505811
22,0.05000000074505811
23,0.05000000074505811
24,0.05000000074505811
25,0.05000000074505811
26,0.05000000074505811
27,0.05000000074505811
28,0.05000000074505811
29,0.05000000074505811
30,0.05000000074505811
31,0.05000000074505811
32,0.05000000074505811
33,0.05000000074505811
34,0.05000000074505811
35,0.05000000074505811
36,0.500000007450581
37,0.500000007450581
38,0.500000007450581
2093,17.49767183467318
2228,17.999854667320886
2291,18.00054968412223
2354,17.499075029435247
2417,17.57422538577212
2480,18.000265523352365
2543,18.00009916497498
2606,17.544723797925045
2669,17.561013158375328
2732,18.00006049900909
2795,17.506159931264566
2858,17.529595947407767
2921,17.52942455500773
2984,17.532953007816143
3047,17.582615061744075
3110,17.523138416188317
3173,17.527540895433834
3236,17.527187408293287
3299,17.999728940958573
3362,18.000497221751576
3425,17.537099273571645
3488,17.529528535474086
3551,17.499902383940263
3614,17.501879483392187
3677,17.497794376668338
3740,17.528858100592867
3803,17.99990171742404
3866,18.000492631569422
3929,18.000080145240606
3992,8.971506939944838
4055,9.402849979324294
4118,9.121402379210949
4181,9.195459347337911
4244,8.162746752340814
4307,9.11948462851733
4370,9.32393487851576
4433,9.107054299493868
4496,8.954511567280008
4559,8.957921283822781
4622,8.763875669692496
4685,9.107312475178402
4748,17.688562762960245
4811,17.583670996149333
4874,409.20204061419463
4875,425.8094058270013
4876,435.99092204457406
4877,415.93410652004826
4878,407.47968338293873
4879,453.1854415001464
4880,468.4023355314159
4881,409.6723483464635
4882,409.184546173942
4883,425.06205451544224
4884,408.39362757785176
4885,411.0787400945779
4886,411.0809195868076
4887,411.0951219766057
4888,429.1090039295381
4889,411.15798285066734
4890,411.06409065120374
4891,411.06890537738104
4892,453.81142674732206
4893,454.99574580348195
4894,410.90748544089365
4895,407.9822278200557
4896,411.0095465489564
4897,432.15552030319554
4898,410.99457208691894
4899,411.07361321834077
4900,467.30996879983314
4901,470.38184899992643
4902,410.4454452226937
4903,400.00000000000006
4904,400.0
4905,400.00000000000017
4906,400.00000000000006
4907,400.00000000000006
4908,399.99999999999983
4909,400.00000000000017
4910,400.00000000000017
4911,400.0
4912,400.0000000000002
4913,400.0000000000002
4914,400.0000000000002
4915,419.7531365284303
4916,408.7274527513163
5115,18.0
5116,27.0
5117,18.0
5118,60.0
5119,60.0
5120,100.0
5121,0.200000002980232
5122,0.600000023841858
5123,0.049999999999999996
5124,0.05000000074505811
5125,0.0
5126,0.699999988079071
5127,410.0
5128,410.0
5129,18.0
5130,4.0
5131,1.0
5132,1.0
5133,4.0
5134,4.0
5135,1.0
5136,1.0
5137,4.0
5138,4.0
5139,4.0
5140,4.0
5141,4.0
5142,4.0
5143,4.0
5144,4.0
5145,4.0
5146,4.0
5147,4.0
5148,1.0
5149,1.0
5150,4.0
5151,4.0
5152,4.0
5153,4.0
5154,4.0
5155,4.0
5156,1.0
5157,1.0
5158,1.0
5159,4.0
5160,4.0
5161,1.0
5162,1.0
5163,0.0
5164,400.0
5165,600.0
5166,400.0
5289,523.7400000000001
5327,1.3475943290263546
2,1, 1, 1, 0, 4, 0.00,60.00,Sunday
7,8.916666666666666
8,0.05000000074505811
9,0.05000000074505811
10,0.05000000074505811
11,0.05000000074505811
12,0.05000000074505811
13,0.05000000074505811
14,0.05000000074505811
15,0.05000000074505811
16,0.05000000074505811
17,0.05000000074505811
18,0.05000000074505811
19,0.05000000074505811
20,0.05000000074505811
21,0.05000000074505811
22,0.05000000074505811
23,0.05000000074505811
24,0.05000000074505811
25,0.05000000074505811
26,0.05000000074505811
27,0.05000000074505811
28,0.05000000074505811
29,0.05000000074505811
30,0.05000000074505811
31,0.05000000074505811
32,0.05000000074505811
33,0.05000000074505811
34,0.05000000074505811
35,0.05000000074505811
36,0.500000007450581
37,0.500000007450581
38,0.500000007450581
2093,17.515383716753615
2228,17.99947458470691
2291,18.00014137504346
2354,17.517043542251713
2417,17.588392158317674
2480,17.999962931017052
2543,17.99966038171323
2606,17.559917877100073
2669,17.57512704588692
2732,18.0001712383326
2795,17.522164966629493
2858,17.545728399721884
2921,17.54521749816623
2984,17.546746270843318
3047,17.596873187951243
3110,17.538779088602467
3173,17.54300982227063
3236,17.542821151100302
3299,17.99948448299972
3362,17.999471428634738
3425,17.55174973522595
3488,17.545097306680606
3551,17.51656325148763
3614,17.51891631875169
3677,17.51484010186686
3740,17.544447526466215
3803,17.999782561370154
3866,17.99974570278366
3929,17.999993324895765
3992,9.010392689668937
4055,9.438236113133415
4118,9.159216073834338
4181,9.232797069180519
4244,8.205336630311221
4307,9.157265597405482
4370,9.360326811770319
4433,9.144588772748689
4496,8.993182149291718
4559,8.996665985309873
4622,8.851460050824413
4685,9.144843842800158
4748,17.6984292318064
4811,17.59797677631573
4874,409.1924823532465
4875,425.84905632962244
4876,436.0338771279534
4877,415.916404216558
4878,407.4733960220381
4879,453.23992142034626
4880,468.4663068876748
4881,409.66266605930826
4882,409.17552751417725
4883,425.1010854971682
4884,408.3862257084069
4885,411.0669751801299
4886,411.06916249954674
4887,411.0833812932562
4888,429.0661758479969
4889,411.1460917678302
4890,411.05233431984794
4891,411.0571567291951
4892,453.8657121978301
4893,455.0511707328289
4894,410.8959915038061
4895,407.9754124818125
4896,410.99768314422266
4897,432.10806606396886
4898,410.9827087557092
4899,411.06186127225243
4900,467.3730008128247
4901,470.4472181706365
4902,410.46591276105545
4903,400.00000000000017
4904,400.00000000000006
4905,400.0
4906,399.99999999999994
4907,399.99999999999983
4908,399.99999999999983
4909,400.00000000000017
4910,400.00000000000006
4911,400.00000000000006
4912,400.00000000000006
4913,400.00000000000006
4914,400.0
4915,419.72469840745316
4916,408.7192007261742
5115,18.0
5116,27.0
5117,18.0
5118,60.0
5119,60.0
5120,100.0
5121,0.200000002980232
5122,0.600000023841858
5123,0.049999999999999996
5124,0.05000000074505811
5125,0.0
5126,0.699999988079071
5127,410.0
5128,410.0
5129,18.0
5130,4.0
5131,1.0
5132,1.0
5133,4.0
5134,4.0
5135,1.0
5136,1.0
5137,4.0
5138,4.0
5139,4.0
5140,4.0
5141,4.0
5142,4.0
5143,4.0
5144,4.0
5145,4.0
5146,4.0
5147,4.0
5148,1.0
5149,1.0
5150,4.0
5151,4.0
5152,4.0
5153,4.0
5154,4.0
5155,4.0
5156,1.0
5157,1.0
5158,1.0
5159,4.0
5160,4.0
5161,1.0
5162,1.0
5163,0.0
5164,400.0
5165,600.0
5166,400.0
5289,523.7400000000001
5327,1.3475943290263546
2,1, 1, 1, 0, 5, 0.00,60.00,Sunday
7,9.058333333333334
8,0.05000000074505811
9,0.05000000074505811
10,0.05000000074505811
11,0.05000000074505811
12,0.05000000074505811
13,0.05000000074505811
14,0.05000000074505811
15,0.05000000074505811
16,0.05000000074505811
17,0.05000000074505811
18,0.05000000074505811
19,0.05000000074505811
20,0.05000000074505811
21,0.05000000074505811
22,0.05000000074505811
23,0.05000000074505811
24,0.05000000074505811
25,0.05000000074505811
26,0.05000000074505811
27,0.05000000074505811
28,0.05000000074505811
29,0.05000000074505811
30,0.05000000074505811
31,0.05000000074505811
32,0.05000000074505811
33,0.05000000074505811
34,0.05000000074505811
35,0.05000000074505811
36,0.500000007450581
37,0.500000007450581
38,0.500000007450581
2093,17.524843707699002
2228,17.999613783622443
2291,18.00026296988318
2354,17.524151133760782
2417,17.595165144536097
2480,18.000063656895673
2543,18.000082783390926
2606,17.568385690739266
2669,17.58342607261464
2732,18.00024603880034
2795,17.53054180144515
2858,17.553181833033623
2921,17.552918029914768
2984,17.555213810687317
3047,17.60351595589706
3110,17.54684223554041
3173,17.55104699452097
3236,17.55149093903855
3299,18.00007909596709
3362,17.99962586058535
3425,17.5591922301416
3488,17.553508118011848
3551,17.52538321395947
3614,17.526913829923682
3677,17.524049580616218
3740,17.5520696818114
3803,17.999893407144885
3866,17.999741232706352
3929,18.00022995296428
3992,9.04877070783042
4055,9.477096384386739
4118,9.1983488546413
4181,9.272013932265663
4244,8.240648215701073
4307,9.196369729980084
4370,9.3997155048774
4433,9.183962713034681
4496,9.031523778204491
4559,9.035388153271088
4622,8.911060350889734
4685,9.184217768570315
4748,17.70429046101592
4811,17.60475393449228
4874,409.1836700852386
4875,425.8700065108689
4876,436.0555735170872
4877,415.90114552324684
4878,407.4669792987409
4879,453.26804558030625
4880,468.50010397340566
4881,409.65366799770374
4882,409.16704328831247
4883,425.12181846567825
4884,408.37896113460465
4885,411.0563801401306
4886,411.0585613876485
4887,411.07277519050643
4888,429.03208974154114
4889,411.13538985932354
4890,411.04175026510967
4891,411.0465540354923
4892,453.8938270529766